[Molden Format]
made by pyscf v[2.0.1]
[Atoms] (AU)
H   1   1     0.00000000000000     0.00000000000000     0.00000000000000
H   2   1     0.00000000000000     0.00000000000000     5.66917837369518
H   3   1     0.00000000000000     0.00000000000000    11.33835674739037
H   4   1     0.00000000000000     0.00000000000000    17.00753512108555
H   5   1     0.00000000000000     0.00000000000000    22.67671349478074
H   6   1     0.00000000000000     0.00000000000000    28.34589186847592
H   7   1     0.00000000000000     0.00000000000000    34.01507024217111
H   8   1     0.00000000000000     0.00000000000000    39.68424861586630
H   9   1     0.00000000000000     0.00000000000000    45.35342698956148
H   10   1     0.00000000000000     0.00000000000000    51.02260536325667
[GTO]
1 0
 s    3 1.00
            3.42525091    0.15432897070298
            0.62391373    0.53532814243847
             0.1688554    0.44463454202535

2 0
 s    3 1.00
            3.42525091    0.15432897070298
            0.62391373    0.53532814243847
             0.1688554    0.44463454202535

3 0
 s    3 1.00
            3.42525091    0.15432897070298
            0.62391373    0.53532814243847
             0.1688554    0.44463454202535

4 0
 s    3 1.00
            3.42525091    0.15432897070298
            0.62391373    0.53532814243847
             0.1688554    0.44463454202535

5 0
 s    3 1.00
            3.42525091    0.15432897070298
            0.62391373    0.53532814243847
             0.1688554    0.44463454202535

6 0
 s    3 1.00
            3.42525091    0.15432897070298
            0.62391373    0.53532814243847
             0.1688554    0.44463454202535

7 0
 s    3 1.00
            3.42525091    0.15432897070298
            0.62391373    0.53532814243847
             0.1688554    0.44463454202535

8 0
 s    3 1.00
            3.42525091    0.15432897070298
            0.62391373    0.53532814243847
             0.1688554    0.44463454202535

9 0
 s    3 1.00
            3.42525091    0.15432897070298
            0.62391373    0.53532814243847
             0.1688554    0.44463454202535

10 0
 s    3 1.00
            3.42525091    0.15432897070298
            0.62391373    0.53532814243847
             0.1688554    0.44463454202535

[5d]
[7f]
[9g]

[MO]
 Sym= A
 Ene=               0
 Spin= Alpha
 Occup=    1.00000
   1       1.0001251316469
   2    -0.0091351052463572
   3    0.00012324385150479
   4    -1.8528684775494e-06
   5    2.9263465370354e-08
   6    -4.754552885991e-10
   7    7.8671614911911e-12
   8    -1.3093049787951e-13
   9    2.4278817499202e-15
  10    -8.6694796668672e-17
 Sym= A
 Ene=               1
 Spin= Alpha
 Occup=    1.00000
   1    -0.0091351052463572
   2       1.0002502937382
   3    -0.0091369843946194
   4    0.00012327350953077
   5    -1.8533501597447e-06
   6    2.9271433680742e-08
   7    -4.7558785437652e-10
   8    7.869796202146e-12
   9    -1.318435098948e-13
  10    1.7631048531101e-15
 Sym= A
 Ene=               2
 Spin= Alpha
 Occup=    1.00000
   1    0.00012324385150473
   2    -0.0091369843946194
   3       1.0002503234017
   4    -0.0091369848763852
   5    0.00012327351750039
   6    -1.8533502927403e-06
   7    2.927143642471e-08
   8    -4.755887241296e-10
   9    7.8706287452739e-12
  10    -1.3189548595793e-13
 Sym= A
 Ene=               3
 Spin= Alpha
 Occup=    1.00000
   1    -1.8528684775408e-06
   2    0.00012327350953076
   3    -0.0091369848763852
   4       1.0002503234097
   5    -0.009136984876518
   6    0.00012327351750381
   7    -1.8533502939429e-06
   8    2.9271437908673e-08
   9    -4.7558984917789e-10
  10    7.869413653653e-12
 Sym= A
 Ene=               4
 Spin= Alpha
 Occup=    1.00000
   1    2.9263465354524e-08
   2    -1.8533501597464e-06
   3    0.00012327351750039
   4    -0.0091369848765181
   5       1.0002503234097
   6     -0.00913698487652
   7    0.00012327351750498
   8    -1.8533502951776e-06
   9    2.9271436336899e-08
  10    -4.7545607212313e-10
 Sym= A
 Ene=               5
 Spin= Alpha
 Occup=    0.00000
   1    -4.7545525361656e-10
   2    2.9271433683401e-08
   3    -1.8533502927582e-06
   4    0.00012327351750383
   5     -0.00913698487652
   6       1.0002503234097
   7    -0.009136984876521
   8    0.00012327351750338
   9    -1.8533501600794e-06
  10    2.9263465401781e-08
 Sym= A
 Ene=               6
 Spin= Alpha
 Occup=    0.00000
   1    7.867150139884e-12
   2    -4.7558786147155e-10
   3    2.927143643989e-08
   4    -1.8533502939954e-06
   5    0.00012327351750499
   6    -0.009136984876521
   7       1.0002503234097
   8    -0.0091369848763854
   9    0.00012327350952957
  10    -1.8528684767977e-06
 Sym= A
 Ene=               7
 Spin= Alpha
 Occup=    0.00000
   1    -1.3090553451462e-13
   2    7.8698063299643e-12
   3    -4.7558872463668e-10
   4    2.9271437909205e-08
   5    -1.8533502951544e-06
   6    0.00012327351750337
   7    -0.0091369848763855
   8       1.0002503234017
   9    -0.0091369843946185
  10    0.00012324385150422
 Sym= A
 Ene=               8
 Spin= Alpha
 Occup=    0.00000
   1    2.415107090524e-15
   2    -1.3184024310858e-13
   3    7.8706505766746e-12
   4    -4.7558984871604e-10
   5    2.9271436344518e-08
   6    -1.8533501601038e-06
   7    0.00012327350952957
   8    -0.0091369843946184
   9       1.0002502937382
  10    -0.0091351052463571
 Sym= A
 Ene=               9
 Spin= Alpha
 Occup=    0.00000
   1    -7.3449560852196e-17
   2    1.7694294202717e-15
   3    -1.3191539607263e-13
   4    7.8693891797387e-12
   5    -4.7545606545493e-10
   6    2.9263465413149e-08
   7    -1.8528684768301e-06
   8    0.0001232438515042
   9    -0.0091351052463571
  10       1.0001251316469
