[Molden Format]
made by pyscf v[2.0.1]
[Atoms] (AU)
O   1   8     7.08796331599996     7.55272320529975    47.74261949969259
O   2   8    14.93858459430196    12.48257522779407    54.37179912111036
O   3   8    10.65865475319966     9.47736015918931    46.33482242830669
O   4   8    11.05861242698381    11.17462434928288    55.66067614301650
C   5   6     9.66169495543189     9.58368373898337    50.78349523124142
C   6   6    12.22729730320482    10.81091998784981    51.22540197822111
C   7   6     9.18402815666695     8.85363561254752    48.08968307242805
C   8   6    12.60354072976205    11.47801250547670    53.97644040404763
H   9   1     8.11752719925107    10.85854761578505    51.36121489466089
H   10   1     9.40835688998254     7.89577449370453    51.97180527973569
H   11   1    12.45175987711753    12.53948880137184    50.09013346899884
H   12   1    13.78342893998085     9.56492899989197    50.63302739294813
H   13   1     6.83990599157397     7.17345971576605    45.87818999275575
H   14   1    15.05356304216913    12.86468792005834    56.18095751842822
Al   15   13     7.97463717405698     4.68448804870183    41.73575241421707
Al   16   13    10.68097898063385     6.23467698380948    37.27291552012500
Al   17   13    13.30653701830422     4.69807951953616    41.76290338450520
Al   18   13     5.31382710075514     9.30509374635722    41.65633373243445
Al   19   13     8.05344088566636    10.79913472084962    37.23955396777348
Al   20   13    10.63797350851239     9.28673302032404    42.59605070014446
Al   21   13    13.32101561007346    10.80212122730207    37.24046081464765
Al   22   13    15.97015440194896     9.30280211713873    41.73617254798516
Al   23   13     7.97632142392402    13.91013996860072    41.71712073781658
Al   24   13    13.29894434562434    13.90956169533699    41.71998267229524
[GTO]
1 0
 s    3 1.00
             130.70932    0.15432896872316
             23.808861    0.53532813557095
             6.4436083    0.44463453632131
 s    3 1.00
             5.0331513  -0.099967228656673
             1.1695961    0.39951282463148
              0.380389    0.70011546059208
 p    3 1.00
             5.0331513    0.15591626847816
             1.1695961    0.60768371406861
              0.380389    0.39195738617424

2 0
 s    3 1.00
             130.70932    0.15432896872316
             23.808861    0.53532813557095
             6.4436083    0.44463453632131
 s    3 1.00
             5.0331513  -0.099967228656673
             1.1695961    0.39951282463148
              0.380389    0.70011546059208
 p    3 1.00
             5.0331513    0.15591626847816
             1.1695961    0.60768371406861
              0.380389    0.39195738617424

3 0
 s    3 1.00
             130.70932    0.15432896872316
             23.808861    0.53532813557095
             6.4436083    0.44463453632131
 s    3 1.00
             5.0331513  -0.099967228656673
             1.1695961    0.39951282463148
              0.380389    0.70011546059208
 p    3 1.00
             5.0331513    0.15591626847816
             1.1695961    0.60768371406861
              0.380389    0.39195738617424

4 0
 s    3 1.00
             130.70932    0.15432896872316
             23.808861    0.53532813557095
             6.4436083    0.44463453632131
 s    3 1.00
             5.0331513  -0.099967228656673
             1.1695961    0.39951282463148
              0.380389    0.70011546059208
 p    3 1.00
             5.0331513    0.15591626847816
             1.1695961    0.60768371406861
              0.380389    0.39195738617424

5 0
 s    3 1.00
             71.616837    0.15432897000916
             13.045096    0.53532814003178
             3.5305122     0.4446345400264
 s    3 1.00
             2.9412494  -0.099967230075964
             0.6834831    0.39951283030359
             0.2222899    0.70011547053201
 p    3 1.00
             2.9412494    0.15591627210511
             0.6834831    0.60768372820466
             0.2222899    0.39195739529202

6 0
 s    3 1.00
             71.616837    0.15432897000916
             13.045096    0.53532814003178
             3.5305122     0.4446345400264
 s    3 1.00
             2.9412494  -0.099967230075964
             0.6834831    0.39951283030359
             0.2222899    0.70011547053201
 p    3 1.00
             2.9412494    0.15591627210511
             0.6834831    0.60768372820466
             0.2222899    0.39195739529202

7 0
 s    3 1.00
             71.616837    0.15432897000916
             13.045096    0.53532814003178
             3.5305122     0.4446345400264
 s    3 1.00
             2.9412494  -0.099967230075964
             0.6834831    0.39951283030359
             0.2222899    0.70011547053201
 p    3 1.00
             2.9412494    0.15591627210511
             0.6834831    0.60768372820466
             0.2222899    0.39195739529202

8 0
 s    3 1.00
             71.616837    0.15432897000916
             13.045096    0.53532814003178
             3.5305122     0.4446345400264
 s    3 1.00
             2.9412494  -0.099967230075964
             0.6834831    0.39951283030359
             0.2222899    0.70011547053201
 p    3 1.00
             2.9412494    0.15591627210511
             0.6834831    0.60768372820466
             0.2222899    0.39195739529202

9 0
 s    3 1.00
            3.42525091    0.15432897070298
            0.62391373    0.53532814243847
             0.1688554    0.44463454202535

10 0
 s    3 1.00
            3.42525091    0.15432897070298
            0.62391373    0.53532814243847
             0.1688554    0.44463454202535

11 0
 s    3 1.00
            3.42525091    0.15432897070298
            0.62391373    0.53532814243847
             0.1688554    0.44463454202535

12 0
 s    3 1.00
            3.42525091    0.15432897070298
            0.62391373    0.53532814243847
             0.1688554    0.44463454202535

13 0
 s    3 1.00
            3.42525091    0.15432897070298
            0.62391373    0.53532814243847
             0.1688554    0.44463454202535

14 0
 s    3 1.00
            3.42525091    0.15432897070298
            0.62391373    0.53532814243847
             0.1688554    0.44463454202535

15 0
 s    3 1.00
           351.4214767    0.15432896729417
           64.01186067    0.53532814227977
           17.32410761     0.4446345421832
 s    3 1.00
           18.89939621  -0.099967229186706
           4.391813233    0.39951282608683
            1.42835397    0.70011546887693
 s    3 1.00
           1.395448293   -0.21962036900456
          0.3893265318    0.22559543360468
          0.1523797659     0.9003984260187
 p    3 1.00
           18.89939621    0.15591627500116
           4.391813233    0.60768371860453
            1.42835397    0.39195739310292
 p    3 1.00
           1.395448293   0.010587604289098
          0.3893265318    0.59516700524927
          0.1523797659    0.46200101196062

16 0
 s    3 1.00
           351.4214767    0.15432896729417
           64.01186067    0.53532814227977
           17.32410761     0.4446345421832
 s    3 1.00
           18.89939621  -0.099967229186706
           4.391813233    0.39951282608683
            1.42835397    0.70011546887693
 s    3 1.00
           1.395448293   -0.21962036900456
          0.3893265318    0.22559543360468
          0.1523797659     0.9003984260187
 p    3 1.00
           18.89939621    0.15591627500116
           4.391813233    0.60768371860453
            1.42835397    0.39195739310292
 p    3 1.00
           1.395448293   0.010587604289098
          0.3893265318    0.59516700524927
          0.1523797659    0.46200101196062

17 0
 s    3 1.00
           351.4214767    0.15432896729417
           64.01186067    0.53532814227977
           17.32410761     0.4446345421832
 s    3 1.00
           18.89939621  -0.099967229186706
           4.391813233    0.39951282608683
            1.42835397    0.70011546887693
 s    3 1.00
           1.395448293   -0.21962036900456
          0.3893265318    0.22559543360468
          0.1523797659     0.9003984260187
 p    3 1.00
           18.89939621    0.15591627500116
           4.391813233    0.60768371860453
            1.42835397    0.39195739310292
 p    3 1.00
           1.395448293   0.010587604289098
          0.3893265318    0.59516700524927
          0.1523797659    0.46200101196062

18 0
 s    3 1.00
           351.4214767    0.15432896729417
           64.01186067    0.53532814227977
           17.32410761     0.4446345421832
 s    3 1.00
           18.89939621  -0.099967229186706
           4.391813233    0.39951282608683
            1.42835397    0.70011546887693
 s    3 1.00
           1.395448293   -0.21962036900456
          0.3893265318    0.22559543360468
          0.1523797659     0.9003984260187
 p    3 1.00
           18.89939621    0.15591627500116
           4.391813233    0.60768371860453
            1.42835397    0.39195739310292
 p    3 1.00
           1.395448293   0.010587604289098
          0.3893265318    0.59516700524927
          0.1523797659    0.46200101196062

19 0
 s    3 1.00
           351.4214767    0.15432896729417
           64.01186067    0.53532814227977
           17.32410761     0.4446345421832
 s    3 1.00
           18.89939621  -0.099967229186706
           4.391813233    0.39951282608683
            1.42835397    0.70011546887693
 s    3 1.00
           1.395448293   -0.21962036900456
          0.3893265318    0.22559543360468
          0.1523797659     0.9003984260187
 p    3 1.00
           18.89939621    0.15591627500116
           4.391813233    0.60768371860453
            1.42835397    0.39195739310292
 p    3 1.00
           1.395448293   0.010587604289098
          0.3893265318    0.59516700524927
          0.1523797659    0.46200101196062

20 0
 s    3 1.00
           351.4214767    0.15432896729417
           64.01186067    0.53532814227977
           17.32410761     0.4446345421832
 s    3 1.00
           18.89939621  -0.099967229186706
           4.391813233    0.39951282608683
            1.42835397    0.70011546887693
 s    3 1.00
           1.395448293   -0.21962036900456
          0.3893265318    0.22559543360468
          0.1523797659     0.9003984260187
 p    3 1.00
           18.89939621    0.15591627500116
           4.391813233    0.60768371860453
            1.42835397    0.39195739310292
 p    3 1.00
           1.395448293   0.010587604289098
          0.3893265318    0.59516700524927
          0.1523797659    0.46200101196062

21 0
 s    3 1.00
           351.4214767    0.15432896729417
           64.01186067    0.53532814227977
           17.32410761     0.4446345421832
 s    3 1.00
           18.89939621  -0.099967229186706
           4.391813233    0.39951282608683
            1.42835397    0.70011546887693
 s    3 1.00
           1.395448293   -0.21962036900456
          0.3893265318    0.22559543360468
          0.1523797659     0.9003984260187
 p    3 1.00
           18.89939621    0.15591627500116
           4.391813233    0.60768371860453
            1.42835397    0.39195739310292
 p    3 1.00
           1.395448293   0.010587604289098
          0.3893265318    0.59516700524927
          0.1523797659    0.46200101196062

22 0
 s    3 1.00
           351.4214767    0.15432896729417
           64.01186067    0.53532814227977
           17.32410761     0.4446345421832
 s    3 1.00
           18.89939621  -0.099967229186706
           4.391813233    0.39951282608683
            1.42835397    0.70011546887693
 s    3 1.00
           1.395448293   -0.21962036900456
          0.3893265318    0.22559543360468
          0.1523797659     0.9003984260187
 p    3 1.00
           18.89939621    0.15591627500116
           4.391813233    0.60768371860453
            1.42835397    0.39195739310292
 p    3 1.00
           1.395448293   0.010587604289098
          0.3893265318    0.59516700524927
          0.1523797659    0.46200101196062

23 0
 s    3 1.00
           351.4214767    0.15432896729417
           64.01186067    0.53532814227977
           17.32410761     0.4446345421832
 s    3 1.00
           18.89939621  -0.099967229186706
           4.391813233    0.39951282608683
            1.42835397    0.70011546887693
 s    3 1.00
           1.395448293   -0.21962036900456
          0.3893265318    0.22559543360468
          0.1523797659     0.9003984260187
 p    3 1.00
           18.89939621    0.15591627500116
           4.391813233    0.60768371860453
            1.42835397    0.39195739310292
 p    3 1.00
           1.395448293   0.010587604289098
          0.3893265318    0.59516700524927
          0.1523797659    0.46200101196062

24 0
 s    3 1.00
           351.4214767    0.15432896729417
           64.01186067    0.53532814227977
           17.32410761     0.4446345421832
 s    3 1.00
           18.89939621  -0.099967229186706
           4.391813233    0.39951282608683
            1.42835397    0.70011546887693
 s    3 1.00
           1.395448293   -0.21962036900456
          0.3893265318    0.22559543360468
          0.1523797659     0.9003984260187
 p    3 1.00
           18.89939621    0.15591627500116
           4.391813233    0.60768371860453
            1.42835397    0.39195739310292
 p    3 1.00
           1.395448293   0.010587604289098
          0.3893265318    0.59516700524927
          0.1523797659    0.46200101196062

[5d]
[7f]
[9g]

[MO]
 Sym= A
 Ene=               0
 Spin= Alpha
 Occup=    1.00000
   1      0.99576995839089
   2     0.017277401807445
   3                     0
   4                     0
   5                     0
   6    4.915949063256e-12
   7    8.5295631300282e-14
   8                     0
   9                     0
  10                     0
  11    -4.9672259642399e-06
  12    -8.6185326369182e-08
  13                     0
  14                     0
  15                     0
  16    1.3395730537246e-10
  17    2.3242659315637e-12
  18                     0
  19                     0
  20                     0
  21    -2.0733649556522e-05
  22    -4.3129930131371e-07
  23                     0
  24                     0
  25                     0
  26    -6.2417010267784e-08
  27    -1.2983923956657e-09
  28                     0
  29                     0
  30                     0
  31    -0.00056614760154045
  32    -1.1776945699751e-05
  33                     0
  34                     0
  35                     0
  36    9.2780832066751e-10
  37    1.9300175753721e-11
  38                     0
  39                     0
  40                     0
  41                     0
  42                     0
  43                     0
  44                     0
  45                     0
  46                     0
  47    3.0260247898091e-06
  48    -7.3469172538306e-06
  49    -5.4884875197077e-07
  50    2.1461548917611e-06
  51    -6.8861550148426e-06
  52    -1.4515663903986e-05
  53    1.596191086003e-07
  54    -5.1215405252076e-07
  55    -1.0795946471481e-06
  56    4.0092695896029e-09
  57    -1.3268752419762e-08
  58    -9.7874566860538e-10
  59    3.7742628945501e-09
  60    1.3391503401769e-09
  61    -8.3036958226519e-09
  62    2.8070876019435e-10
  63    9.9598581817841e-11
  64    -6.1758288294474e-10
  65    2.1330150888323e-08
  66    -5.0705482549826e-08
  67    -3.7917590681325e-09
  68    9.7299810546347e-08
  69    -4.4099018252586e-08
  70    -9.7123449422602e-08
  71    7.2366207518424e-09
  72    -3.2798406166529e-09
  73    -7.2235039887085e-09
  74    3.8814049460163e-06
  75    -9.4277784592494e-06
  76    -7.0428432258187e-07
  77    -5.4860249459845e-06
  78    5.4425302079366e-06
  79    -1.8956525572329e-05
  80    -4.0802013638378e-07
  81    4.0478523878032e-07
  82    -1.4098813303876e-06
  83    4.7694105319322e-09
  84    -1.5928000337396e-08
  85    -1.1745281416808e-09
  86    5.5171235383476e-09
  87    3.3158963415667e-09
  88    -9.6461505725545e-09
  89    4.1033307736059e-10
  90    2.4661799587893e-10
  91    -7.1742722844762e-10
  92    4.5198142528893e-06
  93    -1.0978792304974e-05
  94    -8.2014866084752e-07
  95    1.2938861829743e-05
  96    6.3263095219326e-06
  97    -1.8734182274501e-05
  98    9.6232084622344e-07
  99    4.7051584696754e-07
 100    -1.3933446679413e-06
 101    3.3878173618736e-09
 102    -1.0286025473518e-08
 103    -7.6113102799613e-10
 104    4.7564273303507e-09
 105    2.7843065931027e-09
 106    -1.0148693007614e-08
 107    3.5375670857089e-10
 108    2.070812960272e-10
 109    -7.5480355008497e-10
 110    3.9532743249218e-09
 111    -1.3339966336936e-08
 112    -9.833335374748e-10
 113    1.315780832447e-08
 114    -1.3627754389784e-09
 115    1.6948081707327e-09
 116    9.7860487327742e-10
 117    -1.0135568575557e-10
 118    1.2605044048749e-10
 119    4.1159318385347e-08
 120    -9.7740430281098e-08
 121    -7.3094050635481e-09
 122    2.9073744231104e-08
 123    1.9309613772104e-07
 124    -1.9143201999544e-07
 125    2.1623439928113e-09
 126    1.4361420741586e-08
 127    -1.4237652886346e-08
 128    3.5669625858128e-09
 129    -1.2035831248705e-08
 130    -8.8720280487664e-10
 131    4.6855154726703e-09
 132    1.1386004523317e-08
 133    1.4571810223002e-09
 134    3.4848267753259e-10
 135    8.4682792444654e-10
 136    1.0837704992391e-10
 Sym= A
 Ene=               1
 Spin= Alpha
 Occup=    1.00000
   1     -0.28283803211223
   2       1.2614248185008
   3     0.084388081138719
   4     0.043433383113801
   5     -0.05788727728607
   6    -3.7719119648139e-06
   7    4.3922812980777e-05
   8    -1.0200981630667e-05
   9    -9.0468190016262e-06
  10    -2.6772406075946e-05
  11    -0.00056710061969533
  12    -0.0042832949666831
  13    -0.014154733648802
  14    -0.011358330021733
  15    -0.019209060753063
  16    3.7331140447154e-06
  17    -4.5489502223374e-05
  18    -6.1762147620145e-05
  19    -3.0529244929196e-05
  20    6.2471128068414e-06
  21    -5.7111181416038e-05
  22    0.0060378887038742
  23    -0.012818640496907
  24    -0.0077520610397755
  25    0.0039920649939274
  26    0.00032273844108348
  27    -0.00022787704551151
  28    6.0032993019545e-05
  29    0.0008544162404544
  30     0.004243430691029
  31      0.01753245559282
  32     -0.21691547716203
  33      0.22744575197172
  34      0.13980211822616
  35     0.028024000039556
  36    3.7741012721102e-05
  37    -0.00082769611015712
  38    -4.6384608245146e-06
  39    0.00014349098491581
  40    0.00071107705888444
  41    -0.0018163227634495
  42    -0.0043483265607065
  43    -0.00079304671524389
  44    -0.00048803158885635
  45     -0.26577653291926
  46    -1.2545471816587e-05
  47    0.00067891073448988
  48    -0.0025948770848837
  49     0.011647227787627
  50    0.00098831348915576
  51    -0.0017922689762013
  52    -0.0040250407643511
  53    -0.0039451571812338
  54    0.0070237271451667
  55     0.015907209334066
  56    3.2602012441375e-05
  57    -0.00011064865329752
  58    0.00066365940337913
  59    8.6747369158504e-05
  60    0.00015542985524622
  61    -0.00011238722561565
  62    -0.00038617466425228
  63    -0.00062083968030241
  64    0.00052156174955682
  65    -3.1504093397303e-05
  66    0.00011648443752096
  67    -0.00056521749723992
  68    -0.00014749500338101
  69    8.2597589578218e-05
  70    6.962457915601e-05
  71    0.00061563779970841
  72    -0.00034507362471164
  73    -0.00030518928690274
  74    0.00064194501757544
  75    -0.0024288992431116
  76     0.010932572931175
  77    -0.00095098380912046
  78    0.0015757107226681
  79    -0.0037988448258462
  80    0.0036679560594488
  81    -0.0062273649893387
  82     0.014961002476883
  83    3.0217073527256e-05
  84    -0.00010132100702339
  85    0.00061841326638393
  86    0.00017362764086773
  87    -9.1089463712088e-06
  88    -9.7860842558967e-05
  89    -0.00071234359451008
  90    4.6055595668589e-06
  91    0.00046197826715567
  92    0.00036717597602768
  93    -0.001428563540295
  94    0.0046901091719039
  95    0.0016280048917188
  96    0.00086423351857479
  97    -0.0018092837035924
  98    -0.0058773071741479
  99    -0.0031573058223639
 100    0.0059261285940634
 101    2.0388030840191e-05
 102    -7.6367555095681e-05
 103    0.00033734979040477
 104    7.6526659638198e-05
 105    4.358927067218e-05
 106    -7.6541774987108e-05
 107    -0.00030553048921195
 108    -0.00017391941490709
 109    0.00028685074547782
 110    1.8715299123386e-05
 111    -6.4531516018359e-05
 112    0.00037813976163904
 113    0.00012558306206002
 114    4.3016632849453e-08
 115    1.5666966266031e-05
 116    -0.00053788115178265
 117    -7.4158682350331e-06
 118    -4.4096373171624e-05
 119    -2.7830029196544e-05
 120    0.0001006639011982
 121    -0.00052517014726406
 122    4.7435310604981e-06
 123    -0.00015204420598429
 124    3.7926826003331e-05
 125    -1.4213064646828e-05
 126    0.00065537207888813
 127    -0.00020007042210224
 128    1.6776035988021e-05
 129    -5.740566908364e-05
 130    0.00034468179050609
 131    5.4991549458236e-05
 132    0.00010091967407366
 133    1.8462179488723e-05
 134    -0.00024498759553195
 135    -0.00043039047053318
 136    -5.5414067754712e-05
 Sym= A
 Ene=               2
 Spin= Alpha
 Occup=    1.00000
   1    -0.0084020348452405
   2     0.087079608088159
   3        1.077621972856
   4     0.042910336707108
   5     0.024773878982389
   6    -1.0697254838496e-06
   7    6.8214266409604e-06
   8    9.0180139716361e-06
   9    -2.1057090450975e-06
  10    -1.7360398741236e-05
  11    -0.00019593035522457
  12    0.0020571674041221
  13    -0.0051097885322194
  14    -0.010134410405863
  15    -0.0095902319822952
  16    6.8958841462455e-06
  17    -2.6377407784031e-05
  18    2.0077490886454e-05
  19    5.5283929943971e-07
  20    1.665764935446e-05
  21    0.0003791354021896
  22    -0.0019561369572703
  23    -0.0072998868425699
  24    -0.0076865627230756
  25    0.0065160070750524
  26    0.00015018969722719
  27    0.0004535964745216
  28    -0.00038191295427744
  29    0.00031620227431805
  30    0.0022127973578322
  31    -0.0016656504697024
  32     -0.17830077724809
  33      0.13399201564208
  34       0.1383814327702
  35     0.039658800112268
  36    3.4611203541056e-05
  37    -0.00054850298518899
  38    0.00010682193050206
  39    0.00017695764066517
  40    0.00039650780275702
  41    0.0024342123029064
  42    -0.0013674795615077
  43    -0.00080803071176533
  44    1.5007418254488e-05
  45     0.051008103856775
  46    -8.2229575336596e-06
  47    -0.00014280137154536
  48    0.00057023746060577
  49    -0.0026640076470854
  50    -0.00016415018667644
  51    0.00041802560580606
  52    0.00088616080782147
  53    0.00061843807907778
  54    -0.0017368604162941
  55    -0.003689209539684
  56    -7.2511745823428e-06
  57    2.5178642690087e-05
  58    -0.00015787853333776
  59    -1.9735428189463e-05
  60    -2.907460770741e-05
  61    2.7462894099101e-05
  62    8.8564676245866e-05
  63    0.00011560123127863
  64    -0.00013015842921157
  65    1.3669063396194e-05
  66    -5.2106790574064e-05
  67    0.00023848439163928
  68    6.1029030317815e-05
  69    -3.4541658816879e-05
  70    -4.9053715499881e-05
  71    -0.00024511218350066
  72    0.00013796817587834
  73    0.00018245062895043
  74    -3.8651631997877e-05
  75    9.2509268414447e-05
  76    -0.00067496942043083
  77    0.00011879460064374
  78    -0.00017357324916509
  79    6.8737728333709e-05
  80    -0.00052941664231995
  81    0.0006587399328143
  82    -0.00031561140531668
  83    -7.4485419778849e-07
  84    2.0927697615378e-06
  85    -4.0537874741384e-06
  86    6.6537539413642e-07
  87    8.0711799646655e-06
  88    1.7377284786547e-06
  89    -1.2803249490809e-05
  90    -3.1766016076561e-05
  91    -4.5673701736956e-06
  92    -1.6280250633982e-05
  93    0.00013093543634195
  94    -0.0011985408044141
  95    -0.00016955501591164
  96    -0.0001654815311966
  97    0.00028103165943959
  98    0.00088346154836643
  99    0.0007615714825278
 100    -0.0019504277095642
 101    -3.3520103467178e-06
 102    1.3324097211783e-05
 103    -6.8595862204144e-05
 104    -1.2687054859739e-05
 105    -8.6979118782948e-06
 106    1.6722430306817e-05
 107    5.4587406403618e-05
 108    3.7715793927388e-05
 109    -7.3822781800194e-05
 110    -1.1905944268881e-06
 111    4.0554421866741e-06
 112    -4.1780004613151e-05
 113    -1.2237144913204e-05
 114    -1.7184836632633e-06
 115    -4.7898126579456e-06
 116    6.3615452831291e-05
 117    6.7695887305349e-06
 118    1.893720147863e-05
 119    4.9574479682172e-06
 120    -1.9674853331012e-05
 121    7.1706424636624e-05
 122    -2.8369374214418e-06
 123    2.7308517449399e-05
 124    -3.4538706204308e-05
 125    1.0711019769068e-05
 126    -9.9154549193842e-05
 127    0.00012360035498409
 128    -1.6748824061744e-06
 129    5.8611170964938e-06
 130    -5.5915566263201e-05
 131    -9.7184542442868e-06
 132    -1.2768784743261e-05
 133    -5.1361844542968e-06
 134    4.7762545932071e-05
 135    6.7536308863335e-05
 136    1.8105924124556e-05
 Sym= A
 Ene=               3
 Spin= Alpha
 Occup=    1.00000
   1    -0.0043055626311972
   2       0.0448190020101
   3     0.042910336707108
   4       1.0399172634695
   5     0.023694755167461
   6    -1.2713885841553e-06
   7    1.1657369918906e-05
   8    1.2140177349195e-06
   9    -1.0697665563528e-06
  10    -1.2185679442555e-05
  11    5.4339358715066e-05
  12    -0.0024541877470063
  13    -0.0072122169350394
  14    0.0039955586756612
  15    -0.0090615999225507
  16    4.8133457143436e-06
  17    -2.7508319298127e-05
  18    -9.1665902924481e-06
  19    1.6290141394077e-05
  20    8.1788759404462e-06
  21    0.00041855420170714
  22    0.00082008094613629
  23    -0.0069760410812404
  24    0.0030424666764801
  25    0.0012662951552811
  26    0.00014053125258851
  27    -0.00020003437098846
  28    0.00015164752613571
  29    0.00036015319506091
  30    0.0018554357521869
  31    -0.00086979993000289
  32     -0.11157552582585
  33      0.13991441451474
  34    -0.0015747969808989
  35     0.023447259857079
  36    2.4676041249158e-05
  37    -0.00040550458199058
  38    7.1172059456319e-05
  39    4.0138167967517e-05
  40    0.00033223674596551
  41    -0.0025094947588022
  42    0.0029413735417621
  43    0.0001101023181513
  44    -0.00079196203462684
  45     0.060442166752171
  46    -6.6338445148989e-06
  47    -7.2299547067983e-05
  48     0.000217768788603
  49    -0.0011500471245112
  50    -0.00014371448074641
  51    0.00022262709371328
  52    0.00026804534369337
  53    0.00054234220952893
  54    -0.00086890546489574
  55    -0.0010163883439303
  56    -2.7962295653988e-06
  57    9.2612814652231e-06
  58    -4.4324954990475e-05
  59    6.8879502901907e-07
  60    -1.141828734095e-05
  61    9.8400451786057e-06
  62    -5.4192186309246e-06
  63    3.7771578820096e-05
  64    -4.0956151236158e-05
  65    2.3363221148959e-06
  66    -8.8182317250268e-06
  67    3.4789136480391e-05
  68    1.0801440602507e-05
  69    -1.0454517665068e-05
  70    -1.3088574542675e-05
  71    -4.373692798302e-05
  72    3.9153930278569e-05
  73    5.6247059025145e-05
  74    -0.00020623883221678
  75    0.00085106691500032
  76    -0.0038662180643988
  77    0.00033870210098901
  78    -0.00043596023090445
  79    0.0013985856145728
  80    -0.0014299304370696
  81    0.0017362137857306
  82    -0.005801669865832
  83    -1.1999494894084e-05
  84    4.1768564690948e-05
  85    -0.00026212101060181
  86    -5.9741732651898e-05
  87    -8.9935895932585e-06
  88    4.5637922952034e-05
  89    0.00025402030377781
  90    4.9042337783528e-05
  91    -0.00021496332214996
  92    -3.9985780301768e-05
  93    0.00019106532719726
  94    -0.0012383403581054
  95    -0.0002407242187644
  96    -8.3973276029377e-05
  97    0.00034027562081919
  98     0.001086000861383
  99    0.00030175788131081
 100    -0.0018941481965246
 101    -4.1736151644606e-06
 102    1.6005676993112e-05
 103    -7.812068204897e-05
 104    -1.6678022393654e-05
 105    -7.4318139068213e-06
 106     1.70173680629e-05
 107    6.9781026213535e-05
 108    3.0516338608528e-05
 109    -7.0717103281983e-05
 110    -1.4009234049717e-06
 111    4.6664758078836e-06
 112    -4.7913960545595e-05
 113    -1.4430842989933e-05
 114    -9.5980461433526e-07
 115    -7.0871492205682e-06
 116    7.3737009845268e-05
 117    4.6461422307687e-06
 118    2.4757002869928e-05
 119    2.0697329058337e-05
 120    -7.832306789928e-05
 121    0.00035133709119361
 122    7.8920252179921e-06
 123    9.7605787401889e-05
 124    -7.2205779886085e-05
 125    -3.0993328050477e-05
 126    -0.00038737929744853
 127    0.00025881483263743
 128    -2.1378272516662e-06
 129    7.4423325288588e-06
 130    -4.7027333667097e-05
 131    -9.7094621134782e-06
 132    -1.2518290459975e-05
 133    -3.4278843083372e-06
 134    4.2060799882423e-05
 135    5.5631500013959e-05
 136    1.4226564525647e-05
 Sym= A
 Ene=               4
 Spin= Alpha
 Occup=    1.00000
   1    0.0059185120012885
   2    -0.059730881262407
   3     0.024773878982389
   4     0.023694755167461
   5       1.0820919790072
   6    -3.2690145506695e-06
   7    3.5178634716773e-05
   8    -2.6825465800208e-05
   9    -8.0462310569207e-06
  10    1.3205245847608e-07
  11    0.0012175064747873
  12    -0.025472252733039
  13     0.010809565164757
  14    0.0032470500796787
  15    -0.013078987923008
  16    -4.0332598232402e-06
  17    -2.1611561701385e-05
  18    -9.0989713217839e-05
  19    -5.3386445218296e-05
  20    -5.8678234239194e-06
  21    0.0010190131753971
  22     0.013674625373702
  23    0.0068143459049634
  24    0.0010479593858788
  25    -0.0060877020499923
  26    9.0950789826893e-05
  27    -0.0024287325856908
  28    0.0015434156002055
  29    0.00071475524103802
  30     0.001150619055283
  31    0.0010072491307677
  32    -0.036913976471012
  33      0.05144824344247
  34     0.030594395286977
  35     -0.08771268869017
  36    -6.7853377530368e-07